VARIABLES = temp R00209_sum R00210_sum R00211_sum R00212_sum R00213_sum R00214_sum R00215_sum R00216_sum R00217_sum R00209_sumSq R00210_sumSq R00211_sumSq R00212_sumSq R00213_sumSq R00214_sumSq R00215_sumSq R00216_sumSq R00217_sumSq R00209_avg R00210_avg R00211_avg R00212_avg R00213_avg R00214_avg R00215_avg R00216_avg R00217_avg R00209_std R00210_std R00211_std R00212_std R00213_std R00214_std R00215_std R00216_std R00217_std N  p 
ZONE I=165 DATAPACKING=POINT
