VARIABLES = temp R00029_sum R00030_sum R00031_sum R00032_sum R00033_sum R00034_sum R00035_sum R00036_sum R00037_sum R00038_sum R00029_sumSq R00030_sumSq R00031_sumSq R00032_sumSq R00033_sumSq R00034_sumSq R00035_sumSq R00036_sumSq R00037_sumSq R00038_sumSq R00029_avg R00030_avg R00031_avg R00032_avg R00033_avg R00034_avg R00035_avg R00036_avg R00037_avg R00038_avg R00029_std R00030_std R00031_std R00032_std R00033_std R00034_std R00035_std R00036_std R00037_std R00038_std N  p 
ZONE I=165 DATAPACKING=POINT
