VARIABLES = temp R00019_sum R00020_sum R00021_sum R00022_sum R00023_sum R00024_sum R00025_sum R00026_sum R00027_sum R00028_sum R00019_sumSq R00020_sumSq R00021_sumSq R00022_sumSq R00023_sumSq R00024_sumSq R00025_sumSq R00026_sumSq R00027_sumSq R00028_sumSq R00019_avg R00020_avg R00021_avg R00022_avg R00023_avg R00024_avg R00025_avg R00026_avg R00027_avg R00028_avg R00019_std R00020_std R00021_std R00022_std R00023_std R00024_std R00025_std R00026_std R00027_std R00028_std N  p 
ZONE I=165 DATAPACKING=POINT
