VARIABLES = temp R00159_sum R00160_sum R00161_sum R00162_sum R00163_sum R00164_sum R00165_sum R00166_sum R00167_sum R00168_sum R00159_sumSq R00160_sumSq R00161_sumSq R00162_sumSq R00163_sumSq R00164_sumSq R00165_sumSq R00166_sumSq R00167_sumSq R00168_sumSq R00159_avg R00160_avg R00161_avg R00162_avg R00163_avg R00164_avg R00165_avg R00166_avg R00167_avg R00168_avg R00159_std R00160_std R00161_std R00162_std R00163_std R00164_std R00165_std R00166_std R00167_std R00168_std N  p 
ZONE I=165 DATAPACKING=POINT
