VARIABLES = temp R00189_sum R00190_sum R00191_sum R00192_sum R00193_sum R00194_sum R00195_sum R00196_sum R00197_sum R00198_sum R00189_sumSq R00190_sumSq R00191_sumSq R00192_sumSq R00193_sumSq R00194_sumSq R00195_sumSq R00196_sumSq R00197_sumSq R00198_sumSq R00189_avg R00190_avg R00191_avg R00192_avg R00193_avg R00194_avg R00195_avg R00196_avg R00197_avg R00198_avg R00189_std R00190_std R00191_std R00192_std R00193_std R00194_std R00195_std R00196_std R00197_std R00198_std N  p 
ZONE I=165 DATAPACKING=POINT
