VARIABLES = temp R00009_sum R00010_sum R00011_sum R00012_sum R00013_sum R00014_sum R00015_sum R00016_sum R00017_sum R00018_sum R00009_sumSq R00010_sumSq R00011_sumSq R00012_sumSq R00013_sumSq R00014_sumSq R00015_sumSq R00016_sumSq R00017_sumSq R00018_sumSq R00009_avg R00010_avg R00011_avg R00012_avg R00013_avg R00014_avg R00015_avg R00016_avg R00017_avg R00018_avg R00009_std R00010_std R00011_std R00012_std R00013_std R00014_std R00015_std R00016_std R00017_std R00018_std N  p 
ZONE I=165 DATAPACKING=POINT
