VARIABLES = temp R00169_sum R00170_sum R00171_sum R00172_sum R00173_sum R00174_sum R00175_sum R00176_sum R00177_sum R00178_sum R00169_sumSq R00170_sumSq R00171_sumSq R00172_sumSq R00173_sumSq R00174_sumSq R00175_sumSq R00176_sumSq R00177_sumSq R00178_sumSq R00169_avg R00170_avg R00171_avg R00172_avg R00173_avg R00174_avg R00175_avg R00176_avg R00177_avg R00178_avg R00169_std R00170_std R00171_std R00172_std R00173_std R00174_std R00175_std R00176_std R00177_std R00178_std N  p 
ZONE I=165 DATAPACKING=POINT
