VARIABLES = temp Y(N2)_sum Y(C3H7)_sum Y(C3H8)_sum Y(CH2CHO)_sum Y(CH3CHO)_sum Y(N2)_sumSq Y(C3H7)_sumSq Y(C3H8)_sumSq Y(CH2CHO)_sumSq Y(CH3CHO)_sumSq Y(N2)_avg Y(C3H7)_avg Y(C3H8)_avg Y(CH2CHO)_avg Y(CH3CHO)_avg Y(N2)_std Y(C3H7)_std Y(C3H8)_std Y(CH2CHO)_std Y(CH3CHO)_std N  p 
ZONE I=165 DATAPACKING=POINT
