VARIABLES = temp R00139_sum R00140_sum R00141_sum R00142_sum R00143_sum R00144_sum R00145_sum R00146_sum R00147_sum R00148_sum R00139_sumSq R00140_sumSq R00141_sumSq R00142_sumSq R00143_sumSq R00144_sumSq R00145_sumSq R00146_sumSq R00147_sumSq R00148_sumSq R00139_avg R00140_avg R00141_avg R00142_avg R00143_avg R00144_avg R00145_avg R00146_avg R00147_avg R00148_avg R00139_std R00140_std R00141_std R00142_std R00143_std R00144_std R00145_std R00146_std R00147_std R00148_std N  p 
ZONE I=165 DATAPACKING=POINT
