VARIABLES = temp R00099_sum R00100_sum R00101_sum R00102_sum R00103_sum R00104_sum R00105_sum R00106_sum R00107_sum R00108_sum R00099_sumSq R00100_sumSq R00101_sumSq R00102_sumSq R00103_sumSq R00104_sumSq R00105_sumSq R00106_sumSq R00107_sumSq R00108_sumSq R00099_avg R00100_avg R00101_avg R00102_avg R00103_avg R00104_avg R00105_avg R00106_avg R00107_avg R00108_avg R00099_std R00100_std R00101_std R00102_std R00103_std R00104_std R00105_std R00106_std R00107_std R00108_std N  p 
ZONE I=165 DATAPACKING=POINT
