VARIABLES = temp R00119_sum R00120_sum R00121_sum R00122_sum R00123_sum R00124_sum R00125_sum R00126_sum R00127_sum R00128_sum R00119_sumSq R00120_sumSq R00121_sumSq R00122_sumSq R00123_sumSq R00124_sumSq R00125_sumSq R00126_sumSq R00127_sumSq R00128_sumSq R00119_avg R00120_avg R00121_avg R00122_avg R00123_avg R00124_avg R00125_avg R00126_avg R00127_avg R00128_avg R00119_std R00120_std R00121_std R00122_std R00123_std R00124_std R00125_std R00126_std R00127_std R00128_std N  p 
ZONE I=165 DATAPACKING=POINT
