VARIABLES = temp R00109_sum R00110_sum R00111_sum R00112_sum R00113_sum R00114_sum R00115_sum R00116_sum R00117_sum R00118_sum R00109_sumSq R00110_sumSq R00111_sumSq R00112_sumSq R00113_sumSq R00114_sumSq R00115_sumSq R00116_sumSq R00117_sumSq R00118_sumSq R00109_avg R00110_avg R00111_avg R00112_avg R00113_avg R00114_avg R00115_avg R00116_avg R00117_avg R00118_avg R00109_std R00110_std R00111_std R00112_std R00113_std R00114_std R00115_std R00116_std R00117_std R00118_std N  p 
ZONE I=165 DATAPACKING=POINT
