VARIABLES = temp R00199_sum R00200_sum R00201_sum R00202_sum R00203_sum R00204_sum R00205_sum R00206_sum R00207_sum R00208_sum R00199_sumSq R00200_sumSq R00201_sumSq R00202_sumSq R00203_sumSq R00204_sumSq R00205_sumSq R00206_sumSq R00207_sumSq R00208_sumSq R00199_avg R00200_avg R00201_avg R00202_avg R00203_avg R00204_avg R00205_avg R00206_avg R00207_avg R00208_avg R00199_std R00200_std R00201_std R00202_std R00203_std R00204_std R00205_std R00206_std R00207_std R00208_std N  p 
ZONE I=165 DATAPACKING=POINT
