VARIABLES = temp R00079_sum R00080_sum R00081_sum R00082_sum R00083_sum R00084_sum R00085_sum R00086_sum R00087_sum R00088_sum R00079_sumSq R00080_sumSq R00081_sumSq R00082_sumSq R00083_sumSq R00084_sumSq R00085_sumSq R00086_sumSq R00087_sumSq R00088_sumSq R00079_avg R00080_avg R00081_avg R00082_avg R00083_avg R00084_avg R00085_avg R00086_avg R00087_avg R00088_avg R00079_std R00080_std R00081_std R00082_std R00083_std R00084_std R00085_std R00086_std R00087_std R00088_std N  p 
ZONE I=165 DATAPACKING=POINT
