VARIABLES = temp R00049_sum R00050_sum R00051_sum R00052_sum R00053_sum R00054_sum R00055_sum R00056_sum R00057_sum R00058_sum R00049_sumSq R00050_sumSq R00051_sumSq R00052_sumSq R00053_sumSq R00054_sumSq R00055_sumSq R00056_sumSq R00057_sumSq R00058_sumSq R00049_avg R00050_avg R00051_avg R00052_avg R00053_avg R00054_avg R00055_avg R00056_avg R00057_avg R00058_avg R00049_std R00050_std R00051_std R00052_std R00053_std R00054_std R00055_std R00056_std R00057_std R00058_std N  p 
ZONE I=165 DATAPACKING=POINT
