VARIABLES = temp Y(CH2)_sum Y(CH2(S))_sum Y(CH3)_sum Y(CH4)_sum Y(CO)_sum Y(CO2)_sum Y(HCO)_sum Y(CH2O)_sum Y(CH2OH)_sum Y(CH3O)_sum Y(CH2)_sumSq Y(CH2(S))_sumSq Y(CH3)_sumSq Y(CH4)_sumSq Y(CO)_sumSq Y(CO2)_sumSq Y(HCO)_sumSq Y(CH2O)_sumSq Y(CH2OH)_sumSq Y(CH3O)_sumSq Y(CH2)_avg Y(CH2(S))_avg Y(CH3)_avg Y(CH4)_avg Y(CO)_avg Y(CO2)_avg Y(HCO)_avg Y(CH2O)_avg Y(CH2OH)_avg Y(CH3O)_avg Y(CH2)_std Y(CH2(S))_std Y(CH3)_std Y(CH4)_std Y(CO)_std Y(CO2)_std Y(HCO)_std Y(CH2O)_std Y(CH2OH)_std Y(CH3O)_std N  p 
ZONE I=165 DATAPACKING=POINT
