VARIABLES = temp Y(H2)_sum Y(O2)_sum Y(H2O)_sum Y(H)_sum Y(O)_sum Y(OH)_sum Y(HO2)_sum Y(H2O2)_sum Y(N2)_sum Y(H2)_sumSq Y(O2)_sumSq Y(H2O)_sumSq Y(H)_sumSq Y(O)_sumSq Y(OH)_sumSq Y(HO2)_sumSq Y(H2O2)_sumSq Y(N2)_sumSq Y(H2)_avg Y(O2)_avg Y(H2O)_avg Y(H)_avg Y(O)_avg Y(OH)_avg Y(HO2)_avg Y(H2O2)_avg Y(N2)_avg Y(H2)_std Y(O2)_std Y(H2O)_std Y(H)_std Y(O)_std Y(OH)_std Y(HO2)_std Y(H2O2)_std Y(N2)_std N  p 
ZONE I=75 DATAPACKING=POINT
