VARIABLES = temp H2_ConsumptionRate_sum HeatRelease_sum R00001_sum R00002_sum R00003_sum R00004_sum R00005_sum R00006_sum R00007_sum R00008_sum R00009_sum R00010_sum H2_ConsumptionRate_sumSq HeatRelease_sumSq R00001_sumSq R00002_sumSq R00003_sumSq R00004_sumSq R00005_sumSq R00006_sumSq R00007_sumSq R00008_sumSq R00009_sumSq R00010_sumSq H2_ConsumptionRate_avg HeatRelease_avg R00001_avg R00002_avg R00003_avg R00004_avg R00005_avg R00006_avg R00007_avg R00008_avg R00009_avg R00010_avg H2_ConsumptionRate_std HeatRelease_std R00001_std R00002_std R00003_std R00004_std R00005_std R00006_std R00007_std R00008_std R00009_std R00010_std N  p 
ZONE I=75 DATAPACKING=POINT
