VARIABLES = temp R00099_sum R00100_sum R00101_sum R00102_sum R00103_sum R00104_sum R00105_sum R00106_sum R00107_sum R00108_sum R00109_sum R00110_sum R00111_sum R00112_sum R00113_sum R00114_sum R00115_sum R00116_sum R00117_sum R00118_sum R00119_sum R00120_sum R00121_sum R00122_sum R00123_sum R00124_sum R00125_sum R00126_sum R00127_sum R00128_sum R00129_sum R00130_sum R00131_sum R00132_sum R00133_sum R00134_sum R00135_sum R00136_sum R00137_sum R00138_sum R00139_sum R00140_sum R00141_sum R00142_sum R00143_sum R00144_sum R00145_sum R00146_sum R00147_sum R00148_sum R00099_sumSq R00100_sumSq R00101_sumSq R00102_sumSq R00103_sumSq R00104_sumSq R00105_sumSq R00106_sumSq R00107_sumSq R00108_sumSq R00109_sumSq R00110_sumSq R00111_sumSq R00112_sumSq R00113_sumSq R00114_sumSq R00115_sumSq R00116_sumSq R00117_sumSq R00118_sumSq R00119_sumSq R00120_sumSq R00121_sumSq R00122_sumSq R00123_sumSq R00124_sumSq R00125_sumSq R00126_sumSq R00127_sumSq R00128_sumSq R00129_sumSq R00130_sumSq R00131_sumSq R00132_sumSq R00133_sumSq R00134_sumSq R00135_sumSq R00136_sumSq R00137_sumSq R00138_sumSq R00139_sumSq R00140_sumSq R00141_sumSq R00142_sumSq R00143_sumSq R00144_sumSq R00145_sumSq R00146_sumSq R00147_sumSq R00148_sumSq R00099_avg R00100_avg R00101_avg R00102_avg R00103_avg R00104_avg R00105_avg R00106_avg R00107_avg R00108_avg R00109_avg R00110_avg R00111_avg R00112_avg R00113_avg R00114_avg R00115_avg R00116_avg R00117_avg R00118_avg R00119_avg R00120_avg R00121_avg R00122_avg R00123_avg R00124_avg R00125_avg R00126_avg R00127_avg R00128_avg R00129_avg R00130_avg R00131_avg R00132_avg R00133_avg R00134_avg R00135_avg R00136_avg R00137_avg R00138_avg R00139_avg R00140_avg R00141_avg R00142_avg R00143_avg R00144_avg R00145_avg R00146_avg R00147_avg R00148_avg R00099_std R00100_std R00101_std R00102_std R00103_std R00104_std R00105_std R00106_std R00107_std R00108_std R00109_std R00110_std R00111_std R00112_std R00113_std R00114_std R00115_std R00116_std R00117_std R00118_std R00119_std R00120_std R00121_std R00122_std R00123_std R00124_std R00125_std R00126_std R00127_std R00128_std R00129_std R00130_std R00131_std R00132_std R00133_std R00134_std R00135_std R00136_std R00137_std R00138_std R00139_std R00140_std R00141_std R00142_std R00143_std R00144_std R00145_std R00146_std R00147_std R00148_std N  p 
ZONE I=64 DATAPACKING=POINT
