VARIABLES = temp R00059_sum R00060_sum R00061_sum R00062_sum R00063_sum R00064_sum R00065_sum R00066_sum R00067_sum R00068_sum R00059_sumSq R00060_sumSq R00061_sumSq R00062_sumSq R00063_sumSq R00064_sumSq R00065_sumSq R00066_sumSq R00067_sumSq R00068_sumSq R00059_avg R00060_avg R00061_avg R00062_avg R00063_avg R00064_avg R00065_avg R00066_avg R00067_avg R00068_avg R00059_std R00060_std R00061_std R00062_std R00063_std R00064_std R00065_std R00066_std R00067_std R00068_std N  p 
ZONE I=64 DATAPACKING=POINT
