VARIABLES = temp Y(CH3OH)_sum Y(C2H)_sum Y(C2H2)_sum Y(C2H3)_sum Y(C2H4)_sum Y(C2H5)_sum Y(C2H6)_sum Y(HCCO)_sum Y(CH2CO)_sum Y(HCCOH)_sum Y(CH3OH)_sumSq Y(C2H)_sumSq Y(C2H2)_sumSq Y(C2H3)_sumSq Y(C2H4)_sumSq Y(C2H5)_sumSq Y(C2H6)_sumSq Y(HCCO)_sumSq Y(CH2CO)_sumSq Y(HCCOH)_sumSq Y(CH3OH)_avg Y(C2H)_avg Y(C2H2)_avg Y(C2H3)_avg Y(C2H4)_avg Y(C2H5)_avg Y(C2H6)_avg Y(HCCO)_avg Y(CH2CO)_avg Y(HCCOH)_avg Y(CH3OH)_std Y(C2H)_std Y(C2H2)_std Y(C2H3)_std Y(C2H4)_std Y(C2H5)_std Y(C2H6)_std Y(HCCO)_std Y(CH2CO)_std Y(HCCOH)_std N  p 
ZONE I=64 DATAPACKING=POINT
