VARIABLES = temp Y(H2)_sum Y(H)_sum Y(O)_sum Y(O2)_sum Y(OH)_sum Y(H2O)_sum Y(HO2)_sum Y(H2O2)_sum Y(C)_sum Y(CH)_sum Y(H2)_sumSq Y(H)_sumSq Y(O)_sumSq Y(O2)_sumSq Y(OH)_sumSq Y(H2O)_sumSq Y(HO2)_sumSq Y(H2O2)_sumSq Y(C)_sumSq Y(CH)_sumSq Y(H2)_avg Y(H)_avg Y(O)_avg Y(O2)_avg Y(OH)_avg Y(H2O)_avg Y(HO2)_avg Y(H2O2)_avg Y(C)_avg Y(CH)_avg Y(H2)_std Y(H)_std Y(O)_std Y(O2)_std Y(OH)_std Y(H2O)_std Y(HO2)_std Y(H2O2)_std Y(C)_std Y(CH)_std N  p 
ZONE I=64 DATAPACKING=POINT
