VARIABLES = temp R00149_sum R00150_sum R00151_sum R00152_sum R00153_sum R00154_sum R00155_sum R00156_sum R00157_sum R00158_sum R00149_sumSq R00150_sumSq R00151_sumSq R00152_sumSq R00153_sumSq R00154_sumSq R00155_sumSq R00156_sumSq R00157_sumSq R00158_sumSq R00149_avg R00150_avg R00151_avg R00152_avg R00153_avg R00154_avg R00155_avg R00156_avg R00157_avg R00158_avg R00149_std R00150_std R00151_std R00152_std R00153_std R00154_std R00155_std R00156_std R00157_std R00158_std N  p 
ZONE I=64 DATAPACKING=POINT
