VARIABLES = temp R00149_sum R00150_sum R00151_sum R00152_sum R00153_sum R00154_sum R00155_sum R00156_sum R00157_sum R00158_sum R00159_sum R00160_sum R00161_sum R00162_sum R00163_sum R00164_sum R00165_sum R00166_sum R00167_sum R00168_sum R00169_sum R00170_sum R00171_sum R00172_sum R00173_sum R00174_sum R00175_sum R00176_sum R00177_sum R00178_sum R00179_sum R00180_sum R00181_sum R00182_sum R00183_sum R00184_sum R00185_sum R00186_sum R00187_sum R00188_sum R00189_sum R00190_sum R00191_sum R00192_sum R00193_sum R00194_sum R00195_sum R00196_sum R00197_sum R00198_sum R00149_sumSq R00150_sumSq R00151_sumSq R00152_sumSq R00153_sumSq R00154_sumSq R00155_sumSq R00156_sumSq R00157_sumSq R00158_sumSq R00159_sumSq R00160_sumSq R00161_sumSq R00162_sumSq R00163_sumSq R00164_sumSq R00165_sumSq R00166_sumSq R00167_sumSq R00168_sumSq R00169_sumSq R00170_sumSq R00171_sumSq R00172_sumSq R00173_sumSq R00174_sumSq R00175_sumSq R00176_sumSq R00177_sumSq R00178_sumSq R00179_sumSq R00180_sumSq R00181_sumSq R00182_sumSq R00183_sumSq R00184_sumSq R00185_sumSq R00186_sumSq R00187_sumSq R00188_sumSq R00189_sumSq R00190_sumSq R00191_sumSq R00192_sumSq R00193_sumSq R00194_sumSq R00195_sumSq R00196_sumSq R00197_sumSq R00198_sumSq R00149_avg R00150_avg R00151_avg R00152_avg R00153_avg R00154_avg R00155_avg R00156_avg R00157_avg R00158_avg R00159_avg R00160_avg R00161_avg R00162_avg R00163_avg R00164_avg R00165_avg R00166_avg R00167_avg R00168_avg R00169_avg R00170_avg R00171_avg R00172_avg R00173_avg R00174_avg R00175_avg R00176_avg R00177_avg R00178_avg R00179_avg R00180_avg R00181_avg R00182_avg R00183_avg R00184_avg R00185_avg R00186_avg R00187_avg R00188_avg R00189_avg R00190_avg R00191_avg R00192_avg R00193_avg R00194_avg R00195_avg R00196_avg R00197_avg R00198_avg R00149_std R00150_std R00151_std R00152_std R00153_std R00154_std R00155_std R00156_std R00157_std R00158_std R00159_std R00160_std R00161_std R00162_std R00163_std R00164_std R00165_std R00166_std R00167_std R00168_std R00169_std R00170_std R00171_std R00172_std R00173_std R00174_std R00175_std R00176_std R00177_std R00178_std R00179_std R00180_std R00181_std R00182_std R00183_std R00184_std R00185_std R00186_std R00187_std R00188_std R00189_std R00190_std R00191_std R00192_std R00193_std R00194_std R00195_std R00196_std R00197_std R00198_std N  p 
ZONE I=165 DATAPACKING=POINT
