VARIABLES = temp R00049_sum R00050_sum R00051_sum R00052_sum R00053_sum R00054_sum R00055_sum R00056_sum R00057_sum R00058_sum R00059_sum R00060_sum R00061_sum R00062_sum R00063_sum R00064_sum R00065_sum R00066_sum R00067_sum R00068_sum R00069_sum R00070_sum R00071_sum R00072_sum R00073_sum R00074_sum R00075_sum R00076_sum R00077_sum R00078_sum R00079_sum R00080_sum R00081_sum R00082_sum R00083_sum R00084_sum R00085_sum R00086_sum R00087_sum R00088_sum R00089_sum R00090_sum R00091_sum R00092_sum R00093_sum R00094_sum R00095_sum R00096_sum R00097_sum R00098_sum R00049_sumSq R00050_sumSq R00051_sumSq R00052_sumSq R00053_sumSq R00054_sumSq R00055_sumSq R00056_sumSq R00057_sumSq R00058_sumSq R00059_sumSq R00060_sumSq R00061_sumSq R00062_sumSq R00063_sumSq R00064_sumSq R00065_sumSq R00066_sumSq R00067_sumSq R00068_sumSq R00069_sumSq R00070_sumSq R00071_sumSq R00072_sumSq R00073_sumSq R00074_sumSq R00075_sumSq R00076_sumSq R00077_sumSq R00078_sumSq R00079_sumSq R00080_sumSq R00081_sumSq R00082_sumSq R00083_sumSq R00084_sumSq R00085_sumSq R00086_sumSq R00087_sumSq R00088_sumSq R00089_sumSq R00090_sumSq R00091_sumSq R00092_sumSq R00093_sumSq R00094_sumSq R00095_sumSq R00096_sumSq R00097_sumSq R00098_sumSq R00049_avg R00050_avg R00051_avg R00052_avg R00053_avg R00054_avg R00055_avg R00056_avg R00057_avg R00058_avg R00059_avg R00060_avg R00061_avg R00062_avg R00063_avg R00064_avg R00065_avg R00066_avg R00067_avg R00068_avg R00069_avg R00070_avg R00071_avg R00072_avg R00073_avg R00074_avg R00075_avg R00076_avg R00077_avg R00078_avg R00079_avg R00080_avg R00081_avg R00082_avg R00083_avg R00084_avg R00085_avg R00086_avg R00087_avg R00088_avg R00089_avg R00090_avg R00091_avg R00092_avg R00093_avg R00094_avg R00095_avg R00096_avg R00097_avg R00098_avg R00049_std R00050_std R00051_std R00052_std R00053_std R00054_std R00055_std R00056_std R00057_std R00058_std R00059_std R00060_std R00061_std R00062_std R00063_std R00064_std R00065_std R00066_std R00067_std R00068_std R00069_std R00070_std R00071_std R00072_std R00073_std R00074_std R00075_std R00076_std R00077_std R00078_std R00079_std R00080_std R00081_std R00082_std R00083_std R00084_std R00085_std R00086_std R00087_std R00088_std R00089_std R00090_std R00091_std R00092_std R00093_std R00094_std R00095_std R00096_std R00097_std R00098_std N  p 
ZONE I=64 DATAPACKING=POINT
