VARIABLES = temp R00039_sum R00040_sum R00041_sum R00042_sum R00043_sum R00044_sum R00045_sum R00046_sum R00047_sum R00048_sum R00039_sumSq R00040_sumSq R00041_sumSq R00042_sumSq R00043_sumSq R00044_sumSq R00045_sumSq R00046_sumSq R00047_sumSq R00048_sumSq R00039_avg R00040_avg R00041_avg R00042_avg R00043_avg R00044_avg R00045_avg R00046_avg R00047_avg R00048_avg R00039_std R00040_std R00041_std R00042_std R00043_std R00044_std R00045_std R00046_std R00047_std R00048_std N  p 
ZONE I=64 DATAPACKING=POINT
