VARIABLES = temp R00129_sum R00130_sum R00131_sum R00132_sum R00133_sum R00134_sum R00135_sum R00136_sum R00137_sum R00138_sum R00129_sumSq R00130_sumSq R00131_sumSq R00132_sumSq R00133_sumSq R00134_sumSq R00135_sumSq R00136_sumSq R00137_sumSq R00138_sumSq R00129_avg R00130_avg R00131_avg R00132_avg R00133_avg R00134_avg R00135_avg R00136_avg R00137_avg R00138_avg R00129_std R00130_std R00131_std R00132_std R00133_std R00134_std R00135_std R00136_std R00137_std R00138_std N  p 
ZONE I=64 DATAPACKING=POINT
