VARIABLES = temp R00089_sum R00090_sum R00091_sum R00092_sum R00093_sum R00094_sum R00095_sum R00096_sum R00097_sum R00098_sum R00089_sumSq R00090_sumSq R00091_sumSq R00092_sumSq R00093_sumSq R00094_sumSq R00095_sumSq R00096_sumSq R00097_sumSq R00098_sumSq R00089_avg R00090_avg R00091_avg R00092_avg R00093_avg R00094_avg R00095_avg R00096_avg R00097_avg R00098_avg R00089_std R00090_std R00091_std R00092_std R00093_std R00094_std R00095_std R00096_std R00097_std R00098_std N  p 
ZONE I=64 DATAPACKING=POINT
