VARIABLES = temp R00179_sum R00180_sum R00181_sum R00182_sum R00183_sum R00184_sum R00185_sum R00186_sum R00187_sum R00188_sum R00179_sumSq R00180_sumSq R00181_sumSq R00182_sumSq R00183_sumSq R00184_sumSq R00185_sumSq R00186_sumSq R00187_sumSq R00188_sumSq R00179_avg R00180_avg R00181_avg R00182_avg R00183_avg R00184_avg R00185_avg R00186_avg R00187_avg R00188_avg R00179_std R00180_std R00181_std R00182_std R00183_std R00184_std R00185_std R00186_std R00187_std R00188_std N  p 
ZONE I=64 DATAPACKING=POINT
