VARIABLES = temp R00069_sum R00070_sum R00071_sum R00072_sum R00073_sum R00074_sum R00075_sum R00076_sum R00077_sum R00078_sum R00069_sumSq R00070_sumSq R00071_sumSq R00072_sumSq R00073_sumSq R00074_sumSq R00075_sumSq R00076_sumSq R00077_sumSq R00078_sumSq R00069_avg R00070_avg R00071_avg R00072_avg R00073_avg R00074_avg R00075_avg R00076_avg R00077_avg R00078_avg R00069_std R00070_std R00071_std R00072_std R00073_std R00074_std R00075_std R00076_std R00077_std R00078_std N  p 
ZONE I=64 DATAPACKING=POINT
