VARIABLES = temp CH4_ConsumptionRate_sum HeatRelease_sum R00001_sum R00002_sum R00003_sum R00004_sum R00005_sum R00006_sum R00007_sum R00008_sum R00009_sum R00010_sum R00011_sum R00012_sum R00013_sum R00014_sum R00015_sum R00016_sum R00017_sum R00018_sum R00019_sum R00020_sum R00021_sum R00022_sum R00023_sum R00024_sum R00025_sum R00026_sum R00027_sum R00028_sum R00029_sum R00030_sum R00031_sum R00032_sum R00033_sum R00034_sum R00035_sum R00036_sum R00037_sum R00038_sum R00039_sum R00040_sum R00041_sum R00042_sum R00043_sum R00044_sum R00045_sum R00046_sum R00047_sum R00048_sum CH4_ConsumptionRate_sumSq HeatRelease_sumSq R00001_sumSq R00002_sumSq R00003_sumSq R00004_sumSq R00005_sumSq R00006_sumSq R00007_sumSq R00008_sumSq R00009_sumSq R00010_sumSq R00011_sumSq R00012_sumSq R00013_sumSq R00014_sumSq R00015_sumSq R00016_sumSq R00017_sumSq R00018_sumSq R00019_sumSq R00020_sumSq R00021_sumSq R00022_sumSq R00023_sumSq R00024_sumSq R00025_sumSq R00026_sumSq R00027_sumSq R00028_sumSq R00029_sumSq R00030_sumSq R00031_sumSq R00032_sumSq R00033_sumSq R00034_sumSq R00035_sumSq R00036_sumSq R00037_sumSq R00038_sumSq R00039_sumSq R00040_sumSq R00041_sumSq R00042_sumSq R00043_sumSq R00044_sumSq R00045_sumSq R00046_sumSq R00047_sumSq R00048_sumSq CH4_ConsumptionRate_avg HeatRelease_avg R00001_avg R00002_avg R00003_avg R00004_avg R00005_avg R00006_avg R00007_avg R00008_avg R00009_avg R00010_avg R00011_avg R00012_avg R00013_avg R00014_avg R00015_avg R00016_avg R00017_avg R00018_avg R00019_avg R00020_avg R00021_avg R00022_avg R00023_avg R00024_avg R00025_avg R00026_avg R00027_avg R00028_avg R00029_avg R00030_avg R00031_avg R00032_avg R00033_avg R00034_avg R00035_avg R00036_avg R00037_avg R00038_avg R00039_avg R00040_avg R00041_avg R00042_avg R00043_avg R00044_avg R00045_avg R00046_avg R00047_avg R00048_avg CH4_ConsumptionRate_std HeatRelease_std R00001_std R00002_std R00003_std R00004_std R00005_std R00006_std R00007_std R00008_std R00009_std R00010_std R00011_std R00012_std R00013_std R00014_std R00015_std R00016_std R00017_std R00018_std R00019_std R00020_std R00021_std R00022_std R00023_std R00024_std R00025_std R00026_std R00027_std R00028_std R00029_std R00030_std R00031_std R00032_std R00033_std R00034_std R00035_std R00036_std R00037_std R00038_std R00039_std R00040_std R00041_std R00042_std R00043_std R00044_std R00045_std R00046_std R00047_std R00048_std N  p 
ZONE I=64 DATAPACKING=POINT
