VARIABLES = temp X(H2)_sum X(H)_sum X(O)_sum X(O2)_sum X(OH)_sum X(H2O)_sum X(HO2)_sum X(H2O2)_sum X(C)_sum X(CH)_sum X(CH2)_sum X(CH2(S))_sum X(CH3)_sum X(CH4)_sum X(CO)_sum X(CO2)_sum X(HCO)_sum X(CH2O)_sum X(CH2OH)_sum X(CH3O)_sum X(CH3OH)_sum X(C2H)_sum X(C2H2)_sum X(C2H3)_sum X(C2H4)_sum X(C2H5)_sum X(C2H6)_sum X(HCCO)_sum X(CH2CO)_sum X(HCCOH)_sum X(N2)_sum X(C3H7)_sum X(C3H8)_sum X(CH2CHO)_sum X(CH3CHO)_sum X(H2)_sumSq X(H)_sumSq X(O)_sumSq X(O2)_sumSq X(OH)_sumSq X(H2O)_sumSq X(HO2)_sumSq X(H2O2)_sumSq X(C)_sumSq X(CH)_sumSq X(CH2)_sumSq X(CH2(S))_sumSq X(CH3)_sumSq X(CH4)_sumSq X(CO)_sumSq X(CO2)_sumSq X(HCO)_sumSq X(CH2O)_sumSq X(CH2OH)_sumSq X(CH3O)_sumSq X(CH3OH)_sumSq X(C2H)_sumSq X(C2H2)_sumSq X(C2H3)_sumSq X(C2H4)_sumSq X(C2H5)_sumSq X(C2H6)_sumSq X(HCCO)_sumSq X(CH2CO)_sumSq X(HCCOH)_sumSq X(N2)_sumSq X(C3H7)_sumSq X(C3H8)_sumSq X(CH2CHO)_sumSq X(CH3CHO)_sumSq X(H2)_avg X(H)_avg X(O)_avg X(O2)_avg X(OH)_avg X(H2O)_avg X(HO2)_avg X(H2O2)_avg X(C)_avg X(CH)_avg X(CH2)_avg X(CH2(S))_avg X(CH3)_avg X(CH4)_avg X(CO)_avg X(CO2)_avg X(HCO)_avg X(CH2O)_avg X(CH2OH)_avg X(CH3O)_avg X(CH3OH)_avg X(C2H)_avg X(C2H2)_avg X(C2H3)_avg X(C2H4)_avg X(C2H5)_avg X(C2H6)_avg X(HCCO)_avg X(CH2CO)_avg X(HCCOH)_avg X(N2)_avg X(C3H7)_avg X(C3H8)_avg X(CH2CHO)_avg X(CH3CHO)_avg X(H2)_std X(H)_std X(O)_std X(O2)_std X(OH)_std X(H2O)_std X(HO2)_std X(H2O2)_std X(C)_std X(CH)_std X(CH2)_std X(CH2(S))_std X(CH3)_std X(CH4)_std X(CO)_std X(CO2)_std X(HCO)_std X(CH2O)_std X(CH2OH)_std X(CH3O)_std X(CH3OH)_std X(C2H)_std X(C2H2)_std X(C2H3)_std X(C2H4)_std X(C2H5)_std X(C2H6)_std X(HCCO)_std X(CH2CO)_std X(HCCOH)_std X(N2)_std X(C3H7)_std X(C3H8)_std X(CH2CHO)_std X(CH3CHO)_std N  p 
ZONE I=64 DATAPACKING=POINT
