VARIABLES = temp Y(H2)_sum Y(H)_sum Y(O)_sum Y(O2)_sum Y(OH)_sum Y(H2O)_sum Y(HO2)_sum Y(H2O2)_sum Y(C)_sum Y(CH)_sum Y(CH2)_sum Y(CH2(S))_sum Y(CH3)_sum Y(CH4)_sum Y(CO)_sum Y(CO2)_sum Y(HCO)_sum Y(CH2O)_sum Y(CH2OH)_sum Y(CH3O)_sum Y(CH3OH)_sum Y(C2H)_sum Y(C2H2)_sum Y(C2H3)_sum Y(C2H4)_sum Y(C2H5)_sum Y(C2H6)_sum Y(HCCO)_sum Y(CH2CO)_sum Y(HCCOH)_sum Y(N2)_sum Y(C3H7)_sum Y(C3H8)_sum Y(CH2CHO)_sum Y(CH3CHO)_sum Y(H2)_sumSq Y(H)_sumSq Y(O)_sumSq Y(O2)_sumSq Y(OH)_sumSq Y(H2O)_sumSq Y(HO2)_sumSq Y(H2O2)_sumSq Y(C)_sumSq Y(CH)_sumSq Y(CH2)_sumSq Y(CH2(S))_sumSq Y(CH3)_sumSq Y(CH4)_sumSq Y(CO)_sumSq Y(CO2)_sumSq Y(HCO)_sumSq Y(CH2O)_sumSq Y(CH2OH)_sumSq Y(CH3O)_sumSq Y(CH3OH)_sumSq Y(C2H)_sumSq Y(C2H2)_sumSq Y(C2H3)_sumSq Y(C2H4)_sumSq Y(C2H5)_sumSq Y(C2H6)_sumSq Y(HCCO)_sumSq Y(CH2CO)_sumSq Y(HCCOH)_sumSq Y(N2)_sumSq Y(C3H7)_sumSq Y(C3H8)_sumSq Y(CH2CHO)_sumSq Y(CH3CHO)_sumSq Y(H2)_avg Y(H)_avg Y(O)_avg Y(O2)_avg Y(OH)_avg Y(H2O)_avg Y(HO2)_avg Y(H2O2)_avg Y(C)_avg Y(CH)_avg Y(CH2)_avg Y(CH2(S))_avg Y(CH3)_avg Y(CH4)_avg Y(CO)_avg Y(CO2)_avg Y(HCO)_avg Y(CH2O)_avg Y(CH2OH)_avg Y(CH3O)_avg Y(CH3OH)_avg Y(C2H)_avg Y(C2H2)_avg Y(C2H3)_avg Y(C2H4)_avg Y(C2H5)_avg Y(C2H6)_avg Y(HCCO)_avg Y(CH2CO)_avg Y(HCCOH)_avg Y(N2)_avg Y(C3H7)_avg Y(C3H8)_avg Y(CH2CHO)_avg Y(CH3CHO)_avg Y(H2)_std Y(H)_std Y(O)_std Y(O2)_std Y(OH)_std Y(H2O)_std Y(HO2)_std Y(H2O2)_std Y(C)_std Y(CH)_std Y(CH2)_std Y(CH2(S))_std Y(CH3)_std Y(CH4)_std Y(CO)_std Y(CO2)_std Y(HCO)_std Y(CH2O)_std Y(CH2OH)_std Y(CH3O)_std Y(CH3OH)_std Y(C2H)_std Y(C2H2)_std Y(C2H3)_std Y(C2H4)_std Y(C2H5)_std Y(C2H6)_std Y(HCCO)_std Y(CH2CO)_std Y(HCCOH)_std Y(N2)_std Y(C3H7)_std Y(C3H8)_std Y(CH2CHO)_std Y(CH3CHO)_std N  p 
ZONE I=64 DATAPACKING=POINT
