VARIABLES = temp R00199_sum R00200_sum R00201_sum R00202_sum R00203_sum R00204_sum R00205_sum R00206_sum R00207_sum R00208_sum R00209_sum R00210_sum R00211_sum R00212_sum R00213_sum R00214_sum R00215_sum R00216_sum R00217_sum R00199_sumSq R00200_sumSq R00201_sumSq R00202_sumSq R00203_sumSq R00204_sumSq R00205_sumSq R00206_sumSq R00207_sumSq R00208_sumSq R00209_sumSq R00210_sumSq R00211_sumSq R00212_sumSq R00213_sumSq R00214_sumSq R00215_sumSq R00216_sumSq R00217_sumSq R00199_avg R00200_avg R00201_avg R00202_avg R00203_avg R00204_avg R00205_avg R00206_avg R00207_avg R00208_avg R00209_avg R00210_avg R00211_avg R00212_avg R00213_avg R00214_avg R00215_avg R00216_avg R00217_avg R00199_std R00200_std R00201_std R00202_std R00203_std R00204_std R00205_std R00206_std R00207_std R00208_std R00209_std R00210_std R00211_std R00212_std R00213_std R00214_std R00215_std R00216_std R00217_std N  p 
ZONE I=64 DATAPACKING=POINT
